
     Program PWSCF v.5.0.2 (svn rev. 9656) starts on 10Apr2018 at 11: 7: 1 

     This program is part of the open-source Quantum ESPRESSO suite
     for quantum simulation of materials; please cite
         "P. Giannozzi et al., J. Phys.:Condens. Matter 21 395502 (2009);
          URL http://www.quantum-espresso.org", 
     in publications or presentations arising from this work. More details at
     http://www.quantum-espresso.org/quote.php

     Serial version

     Current dimensions of program PWSCF are:
     Max number of different atomic species (ntypx) = 10
     Max number of k-points (npk) =  40000
     Max angular momentum in pseudopotentials (lmaxx) =  3
     Waiting for input...
     Reading input from standard input
 EFIELD CART   0.0000000000000000        0.0000000000000000        1.0000000000000000E-003
 EFIELD CRY   0.0000000000000000        0.0000000000000000        1.0000000000000000E-003
 BG1   1.0000000000000000        0.0000000000000000        0.0000000000000000     
 BG1   1.0000000000000000        0.0000000000000000        0.0000000000000000     
 nx_el1           1          26          51          76         101           2          27          52          77         102           3          28          53          78         103           4          29          54          79         104           5          30          55          80         105           6          31          56          81         106           7          32          57          82         107           8          33          58          83         108           9          34          59          84         109          10          35          60          85         110          11          36          61          86         111          12          37          62          87         112          13          38          63          88         113          14          39          64          89         114          15          40          65          90         115          16          41          66          91         116          17          42          67          92         117          18          43          68          93         118          19          44          69          94         119          20          45          70          95         120          21          46          71          96         121          22          47          72          97         122          23          48          73          98         123          24          49          74          99         124          25          50          75         100         125
     Found symmetry operation: I + (  0.0000 -0.5000  0.5000)
     This is a supercell, fractional translations are disabled

     G-vector sticks info
     --------------------
     sticks:   dense  smooth     PW     G-vecs:    dense   smooth      PW
     Sum         989     989    333                23583    23583    4553



     bravais-lattice index     =            1
     lattice parameter (alat)  =      10.1800  a.u.
     unit-cell volume          =    1054.9778 (a.u.)^3
     number of atoms/cell      =            8
     number of atomic types    =            1
     number of electrons       =        32.00
     number of Kohn-Sham states=           16
     kinetic-energy cutoff     =      30.0000  Ry
     charge density cutoff     =     120.0000  Ry
     convergence threshold     =      1.0E-08
     mixing beta               =       0.5000
     number of iterations used =            8  plain     mixing
     Exchange-correlation      =  SLA  PW   PBX  PBC ( 1 4 3 4 0)
     EXX-fraction              =        0.00

     Using Berry phase electric field
     In a.u.(Ry)  cartesian system of reference
        0.0000000000
        0.0000000000
        0.0010000000
     In a.u.(Ry)  crystal system of reference
        0.0000000000
        0.0000000000
        0.0010000000
     Number of iterative cycles:   1


     celldm(1)=  10.180000  celldm(2)=   0.000000  celldm(3)=   0.000000
     celldm(4)=   0.000000  celldm(5)=   0.000000  celldm(6)=   0.000000

     crystal axes: (cart. coord. in units of alat)
               a(1) = (   1.000000   0.000000   0.000000 )  
               a(2) = (   0.000000   1.000000   0.000000 )  
               a(3) = (   0.000000   0.000000   1.000000 )  

     reciprocal axes: (cart. coord. in units 2 pi/alat)
               b(1) = (  1.000000  0.000000  0.000000 )  
               b(2) = (  0.000000  1.000000  0.000000 )  
               b(3) = (  0.000000  0.000000  1.000000 )  


     PseudoPot. # 1 for Si read from file:
     /home/rzhang80/mse395/Si.rel-pbe-rrkj.UPF
     MD5 check sum: 0770b7ac3da7dca739fbe4d27da2739d
     Pseudo is Norm-conserving, Zval =  4.0
     Generated by new atomic code, or converted to UPF format
     Using radial grid of 1141 points,  2 beta functions with: 
                l(1) =   0
                l(2) =   1

     atomic species   valence    mass     pseudopotential
        Si             4.00    28.08600     Si( 1.00)

     No symmetry found



   Cartesian axes

     site n.     atom                  positions (alat units)
         1           Si  tau(   1) = (   0.0000000   0.0000000   0.5000000  )
         2           Si  tau(   2) = (   0.7500000   0.7500000   0.7500000  )
         3           Si  tau(   3) = (   0.0000000   0.5000000   0.0000000  )
         4           Si  tau(   4) = (   0.7500000   0.2500000   0.2500000  )
         5           Si  tau(   5) = (   0.5000000   0.0000000   0.0000000  )
         6           Si  tau(   6) = (   0.2500000   0.7500000   0.2500000  )
         7           Si  tau(   7) = (   0.5000000   0.5000000   0.5000000  )
         8           Si  tau(   8) = (   0.2500000   0.2500000   0.7500000  )

     number of k points=   125

     Number of k-points >= 100: set verbosity='high' to print them.

     Dense  grid:    23583 G-vectors     FFT dimensions: (  36,  36,  36)

     Largest allocated arrays     est. size (Mb)     dimensions
        Kohn-Sham Wavefunctions         0.72 Mb     (   2945,   16)
        NL pseudopotentials             1.44 Mb     (   2945,   32)
        Each V/rho on FFT grid          0.71 Mb     (  46656)
        Each G-vector array             0.18 Mb     (  23583)
        G-vector shells                 0.00 Mb     (    266)
     Largest temporary arrays     est. size (Mb)     dimensions
        Auxiliary wavefunctions         2.88 Mb     (   2945,   64)
        Each subspace H/S matrix        0.06 Mb     (  64,  64)
        Each <psi_i|beta_j> matrix      0.01 Mb     (     32,   16)
        Arrays for rho mixing           5.70 Mb     (  46656,   8)

     Initial potential from superposition of free atoms

     starting charge   31.99559, renormalised to   32.00000
     Starting wfc are random

     total cpu time spent up to now is        6.0 secs

     per-process dynamical memory:    11.4 Mb

     Self-consistent Calculation

     iteration #  1     ecut=    30.00 Ry     beta=0.50
     Davidson diagonalization with overlap
     ethr =  1.00E-02,  avg # of iterations =  7.2

     Threshold (ethr) on eigenvalues was too large:
     Diagonalizing with lowered threshold

     Davidson diagonalization with overlap
     ethr =  6.89E-04,  avg # of iterations =  3.3

     Expectation value of exp(iGx): ( 0.22974448215172605     , -1.6389824270669087E-004)   1.0000000000000000     
     Electronic Dipole per cell (Ry a.u.)  -3.2692041159373911E-003
     Ionic Dipole per cell (Ry a.u.)   172.76032877949729     

     Expectation value of exp(iGx): ( 0.22973812375919861     ,  1.1204093282227105E-003)   1.0000000000000000     
     Electronic Dipole per cell (Ry a.u.)   2.2348743245581396E-002
     Ionic Dipole per cell (Ry a.u.)   172.76032877949729     

     Expectation value of exp(iGx): ( 0.22833945943339023     ,  3.7829751671677153E-002)   1.0000000000000000     
     Electronic Dipole per cell (Ry a.u.)  0.75238209539824030     
     Ionic Dipole per cell (Ry a.u.)   172.76032877949731     
Electronic Dipole on Cartesian axes
           1  -3.2692041159373911E-003
           2   2.2348743245581396E-002
           3  0.75238209539824030     
Ionic Dipole on Cartesian axes
           1   172.76032877949729     
           2   172.76032877949729     
           3   172.76032877949731     

     total cpu time spent up to now is       99.1 secs

     total energy              =     -63.18272307 Ry
     Harris-Foulkes estimate   =     -63.05657018 Ry
     estimated scf accuracy    <       0.23879889 Ry

     iteration #  2     ecut=    30.00 Ry     beta=0.50
     Davidson diagonalization with overlap
     ethr =  7.46E-04,  avg # of iterations =  1.1

     Expectation value of exp(iGx): ( 0.22805193533239321     , -3.9112434484118411E-004)   1.0000000000000000     
     Electronic Dipole per cell (Ry a.u.)  -7.8594754882042837E-003
     Ionic Dipole per cell (Ry a.u.)   172.76032877949729     

     Expectation value of exp(iGx): ( 0.22804840029998236     ,  4.4462372338769794E-004)   1.0000000000000000     
     Electronic Dipole per cell (Ry a.u.)   8.9346584255568847E-003
     Ionic Dipole per cell (Ry a.u.)   172.76032877949729     

     Expectation value of exp(iGx): ( 0.22466204290524919     ,  3.8752993001382227E-002)   1.0000000000000000     
     Electronic Dipole per cell (Ry a.u.)  0.78277258213609713     
     Ionic Dipole per cell (Ry a.u.)   172.76032877949731     
Electronic Dipole on Cartesian axes
           1  -7.8594754882042837E-003
           2   8.9346584255568847E-003
           3  0.78277258213609713     
Ionic Dipole on Cartesian axes
           1   172.76032877949729     
           2   172.76032877949729     
           3   172.76032877949731     

     total cpu time spent up to now is      128.6 secs

     total energy              =     -63.18040565 Ry
     Harris-Foulkes estimate   =     -63.01337695 Ry
     estimated scf accuracy    <       0.04271458 Ry

     iteration #  3     ecut=    30.00 Ry     beta=0.50
     Davidson diagonalization with overlap
     ethr =  1.33E-04,  avg # of iterations =  1.7

     Expectation value of exp(iGx): ( 0.22064304178304053     , -1.3169063368750455E-004)   1.0000000000000000     
     Electronic Dipole per cell (Ry a.u.)  -2.7351270395405661E-003
     Ionic Dipole per cell (Ry a.u.)   172.76032877949729     

     Expectation value of exp(iGx): ( 0.22071617264757368     ,  1.2920123602315118E-004)   1.0000000000000000     
     Electronic Dipole per cell (Ry a.u.)   2.6825348040616292E-003
     Ionic Dipole per cell (Ry a.u.)   172.76032877949729     

     Expectation value of exp(iGx): ( 0.21682586221104017     ,  4.0138975841342073E-002)   1.0000000000000000     
     Electronic Dipole per cell (Ry a.u.)  0.83884017355187024     
     Ionic Dipole per cell (Ry a.u.)   172.76032877949731     
Electronic Dipole on Cartesian axes
           1  -2.7351270395405661E-003
           2   2.6825348040616292E-003
           3  0.83884017355187024     
Ionic Dipole on Cartesian axes
           1   172.76032877949729     
           2   172.76032877949729     
           3   172.76032877949731     

     total cpu time spent up to now is      158.8 secs

     total energy              =     -63.18333819 Ry
     Harris-Foulkes estimate   =     -63.00982026 Ry
     estimated scf accuracy    <       0.00076426 Ry

     iteration #  4     ecut=    30.00 Ry     beta=0.50
     Davidson diagonalization with overlap
     ethr =  2.39E-06,  avg # of iterations =  3.4

     Expectation value of exp(iGx): ( 0.21892367127575207     , -9.7008713339940404E-007)   1.0000000000000000     
     Electronic Dipole per cell (Ry a.u.)  -2.0306305938591770E-005
     Ionic Dipole per cell (Ry a.u.)   172.76032877949729     

     Expectation value of exp(iGx): ( 0.21892290174950182     ,  2.0092215914119263E-005)   1.0000000000000000     
     Electronic Dipole per cell (Ry a.u.)   4.2058089658601234E-004
     Ionic Dipole per cell (Ry a.u.)   172.76032877949729     

     Expectation value of exp(iGx): ( 0.21462192006344871     ,  4.2513984690852845E-002)   1.0000000000000000     
     Electronic Dipole per cell (Ry a.u.)  0.89615796724193175     
     Ionic Dipole per cell (Ry a.u.)   172.76032877949731     
Electronic Dipole on Cartesian axes
           1  -2.0306305938591770E-005
           2   4.2058089658601234E-004
           3  0.89615796724193175     
Ionic Dipole on Cartesian axes
           1   172.76032877949729     
           2   172.76032877949729     
           3   172.76032877949731     

     total cpu time spent up to now is      198.7 secs

     total energy              =     -63.18379525 Ry
     Harris-Foulkes estimate   =     -63.01014883 Ry
     estimated scf accuracy    <       0.00002683 Ry

     iteration #  5     ecut=    30.00 Ry     beta=0.50
     Davidson diagonalization with overlap
     ethr =  8.38E-08,  avg # of iterations =  2.9

     Expectation value of exp(iGx): ( 0.21859612486756441     ,  4.7760133959193866E-006)   1.0000000000000000     
     Electronic Dipole per cell (Ry a.u.)   1.0012349026416081E-004
     Ionic Dipole per cell (Ry a.u.)   172.76032877949729     

     Expectation value of exp(iGx): ( 0.21859970704774628     ,  8.4391497418279528E-006)   1.0000000000000000     
     Electronic Dipole per cell (Ry a.u.)   1.7691392599295411E-004
     Ionic Dipole per cell (Ry a.u.)   172.76032877949729     

     Expectation value of exp(iGx): ( 0.21422694686714908     ,  4.2750258891902690E-002)   1.0000000000000000     
     Electronic Dipole per cell (Ry a.u.)  0.90263000512655178     
     Ionic Dipole per cell (Ry a.u.)   172.76032877949731     
Electronic Dipole on Cartesian axes
           1   1.0012349026416081E-004
           2   1.7691392599295411E-004
           3  0.90263000512655178     
Ionic Dipole on Cartesian axes
           1   172.76032877949729     
           2   172.76032877949729     
           3   172.76032877949731     

     total cpu time spent up to now is      234.7 secs

     total energy              =     -63.18375313 Ry
     Harris-Foulkes estimate   =     -63.01009005 Ry
     estimated scf accuracy    <       0.00000088 Ry

     iteration #  6     ecut=    30.00 Ry     beta=0.50
     Davidson diagonalization with overlap
     ethr =  2.76E-09,  avg # of iterations =  3.1

     Expectation value of exp(iGx): ( 0.21855262925603711     ,  1.1423472489446538E-006)   1.0000000000000000     
     Electronic Dipole per cell (Ry a.u.)   2.3952729374646875E-005
     Ionic Dipole per cell (Ry a.u.)   172.76032877949729     

     Expectation value of exp(iGx): ( 0.21855538551507270     ,  9.3427403158682265E-007)   1.0000000000000000     
     Electronic Dipole per cell (Ry a.u.)   1.9589604510441526E-005
     Ionic Dipole per cell (Ry a.u.)   172.76032877949729     

     Expectation value of exp(iGx): ( 0.21416556698308759     ,  4.2823531031656085E-002)   1.0000000000000000     
     Electronic Dipole per cell (Ry a.u.)  0.90438972189468025     
     Ionic Dipole per cell (Ry a.u.)   172.76032877949731     
Electronic Dipole on Cartesian axes
           1   2.3952729374646875E-005
           2   1.9589604510441526E-005
           3  0.90438972189468025     
Ionic Dipole on Cartesian axes
           1   172.76032877949729     
           2   172.76032877949729     
           3   172.76032877949731     

     total cpu time spent up to now is      270.7 secs

     total energy              =     -63.18374874 Ry
     Harris-Foulkes estimate   =     -63.01008399 Ry
     estimated scf accuracy    <       0.00000028 Ry

     iteration #  7     ecut=    30.00 Ry     beta=0.50
     Davidson diagonalization with overlap
     ethr =  8.88E-10,  avg # of iterations =  2.0

     Expectation value of exp(iGx): ( 0.21856544503213871     ,  1.9452809698958585E-007)   1.0000000000000000     
     Electronic Dipole per cell (Ry a.u.)   4.0786246517267542E-006
     Ionic Dipole per cell (Ry a.u.)   172.76032877949729     

     Expectation value of exp(iGx): ( 0.21856657919205236     ,  3.8349572488189562E-007)   1.0000000000000000     
     Electronic Dipole per cell (Ry a.u.)   8.0406225378958903E-006
     Ionic Dipole per cell (Ry a.u.)   172.76032877949729     

     Expectation value of exp(iGx): ( 0.21417560035459685     ,  4.2830127449440959E-002)   1.0000000000000000     
     Electronic Dipole per cell (Ry a.u.)  0.90448415975617580     
     Ionic Dipole per cell (Ry a.u.)   172.76032877949731     
Electronic Dipole on Cartesian axes
           1   4.0786246517267542E-006
           2   8.0406225378958903E-006
           3  0.90448415975617580     
Ionic Dipole on Cartesian axes
           1   172.76032877949729     
           2   172.76032877949729     
           3   172.76032877949731     

     total cpu time spent up to now is      306.2 secs

     End of self-consistent calculation

     Number of k-points >= 100: set verbosity='high' to print the bands.

!    total energy              =     -63.18374711 Ry
     Harris-Foulkes estimate   =     -63.01008229 Ry
     estimated scf accuracy    <          9.2E-09 Ry

     The total energy is the sum of the following terms:

     one-electron contribution =      19.81968304 Ry
     hartree contribution      =       4.29569736 Ry
     xc contribution           =     -19.39362087 Ry
     ewald contribution        =     -67.73184182 Ry

     convergence has been achieved in   7 iterations

     Writing output data file silicon.save

     init_run     :      5.74s CPU      5.86s WALL (       1 calls)
     electrons    :    287.17s CPU    300.14s WALL (       1 calls)

     Called by init_run:
     wfcinit      :      5.38s CPU      5.43s WALL (       1 calls)
     potinit      :      0.06s CPU      0.07s WALL (       1 calls)

     Called by electrons:
     c_bands      :    179.65s CPU    184.76s WALL (       8 calls)
     sum_band     :     14.65s CPU     14.81s WALL (       8 calls)
     v_of_rho     :      0.34s CPU      0.35s WALL (       8 calls)
     mix_rho      :      0.03s CPU      0.03s WALL (       8 calls)

     Called by c_bands:
     init_us_2    :      1.86s CPU      2.38s WALL (    2125 calls)
     cegterg      :    177.32s CPU    180.46s WALL (    1000 calls)

     Called by *egterg:
     h_psi        :    138.81s CPU    139.28s WALL (    4216 calls)
     g_psi        :      1.15s CPU      1.15s WALL (    3091 calls)
     cdiaghg      :      3.30s CPU      3.31s WALL (    3966 calls)

     Called by h_psi:
     add_vuspsi   :     10.06s CPU     10.09s WALL (    4216 calls)

     General routines
     calbec       :     10.32s CPU     10.35s WALL (    4216 calls)
     fft          :      0.10s CPU      0.10s WALL (      89 calls)
     fftw         :     88.58s CPU     88.95s WALL (  121044 calls)
     davcio       :      1.39s CPU      8.54s WALL (   15375 calls)


     PWSCF        :  4m53.47s CPU     5m 9.72s WALL


   This run was terminated on:  11:12:11  10Apr2018            

=------------------------------------------------------------------------------=
   JOB DONE.
=------------------------------------------------------------------------------=
