
     Program PWSCF v.6.2 (svn rev. 13949:13950) starts on 10Apr2018 at 13:46:57 

     This program is part of the open-source Quantum ESPRESSO suite
     for quantum simulation of materials; please cite
         "P. Giannozzi et al., J. Phys.:Condens. Matter 21 395502 (2009);
         "P. Giannozzi et al., J. Phys.:Condens. Matter 29 465901 (2017);
          URL http://www.quantum-espresso.org", 
     in publications or presentations arising from this work. More details at
     http://www.quantum-espresso.org/quote

     Parallel version (MPI), running on     1 processors

     MPI processes distributed on     1 nodes
     Waiting for input...
     Reading input from standard input
     Message from routine read_cards :
     DEPRECATED: no units specified in ATOMIC_POSITIONS card
     Message from routine read_cards :
     ATOMIC_POSITIONS: units set to alat

     Current dimensions of program PWSCF are:
     Max number of different atomic species (ntypx) = 10
     Max number of k-points (npk) =  40000
     Max angular momentum in pseudopotentials (lmaxx) =  3

     Subspace diagonalization in iterative solution of the eigenvalue problem:
     a serial algorithm will be used

     Found symmetry operation: I + (  0.0000 -0.5000  0.5000)
     This is a supercell, fractional translations are disabled

     G-vector sticks info
     --------------------
     sticks:   dense  smooth     PW     G-vecs:    dense   smooth      PW
     Sum         989     989    333                23583    23583    4553



     bravais-lattice index     =            1
     lattice parameter (alat)  =      10.1800  a.u.
     unit-cell volume          =    1054.9778 (a.u.)^3
     number of atoms/cell      =            8
     number of atomic types    =            1
     number of electrons       =        32.00
     number of Kohn-Sham states=           16
     kinetic-energy cutoff     =      30.0000  Ry
     charge density cutoff     =     120.0000  Ry
     convergence threshold     =      1.0E-08
     mixing beta               =       0.5000
     number of iterations used =            8  plain     mixing
     Exchange-correlation      =  SLA  PW   PBX  PBC ( 1  4  3  4 0 0)

     Using Berry phase electric field
     In a.u.(Ry)  cartesian system of reference
        0.0000000000
        0.0000000000
        0.0010000000
     In a.u.(Ry)  crystal system of reference
        0.0000000000
        0.0000000000
        0.0010000000
     Number of iterative cycles:   1


     celldm(1)=  10.180000  celldm(2)=   0.000000  celldm(3)=   0.000000
     celldm(4)=   0.000000  celldm(5)=   0.000000  celldm(6)=   0.000000

     crystal axes: (cart. coord. in units of alat)
               a(1) = (   1.000000   0.000000   0.000000 )  
               a(2) = (   0.000000   1.000000   0.000000 )  
               a(3) = (   0.000000   0.000000   1.000000 )  

     reciprocal axes: (cart. coord. in units 2 pi/alat)
               b(1) = (  1.000000  0.000000  0.000000 )  
               b(2) = (  0.000000  1.000000  0.000000 )  
               b(3) = (  0.000000  0.000000  1.000000 )  


     PseudoPot. # 1 for Si read from file:
     ./Si.rel-pbe-rrkj.UPF
     MD5 check sum: 0770b7ac3da7dca739fbe4d27da2739d
     Pseudo is Norm-conserving, Zval =  4.0
     Generated by new atomic code, or converted to UPF format
     Using radial grid of 1141 points,  2 beta functions with: 
                l(1) =   0
                l(2) =   1

     atomic species   valence    mass     pseudopotential
        Si             4.00    28.08600     Si( 1.00)

     No symmetry found



   Cartesian axes

     site n.     atom                  positions (alat units)
         1           Si  tau(   1) = (   0.0000000   0.0000000   0.5000000  )
         2           Si  tau(   2) = (   0.7500000   0.7500000   0.7500000  )
         3           Si  tau(   3) = (   0.0000000   0.5000000   0.0000000  )
         4           Si  tau(   4) = (   0.7500000   0.2500000   0.2500000  )
         5           Si  tau(   5) = (   0.5000000   0.0000000   0.0000000  )
         6           Si  tau(   6) = (   0.2500000   0.7500000   0.2500000  )
         7           Si  tau(   7) = (   0.5000000   0.5000000   0.5000000  )
         8           Si  tau(   8) = (   0.2500000   0.2500000   0.7500000  )

     number of k points=   125

     Number of k-points >= 100: set verbosity='high' to print them.

     Dense  grid:    23583 G-vectors     FFT dimensions: (  36,  36,  36)

     Estimated max dynamical RAM per process >     110.51 MB

     Initial potential from superposition of free atoms

     starting charge   31.99559, renormalised to   32.00000
     Starting wfc are random

     total cpu time spent up to now is        4.1 secs

     Self-consistent Calculation

     iteration #  1     ecut=    30.00 Ry     beta= 0.50
     Davidson diagonalization with overlap
     ethr =  1.00E-02,  avg # of iterations =  7.2

     Threshold (ethr) on eigenvalues was too large:
     Diagonalizing with lowered threshold

     Davidson diagonalization with overlap
     ethr =  6.89E-04,  avg # of iterations =  3.3

     Expectation value of exp(iGx):       (0.22974512450603818,-1.63901024821554224E-004)   1.0000000000000000     
     Electronic Dipole per cell (Ry a.u.)  -3.2692504688444108E-003
     Ionic Dipole per cell (Ry a.u.)   172.76032877949729     

     Expectation value of exp(iGx):        (0.22973876555563888,1.12040580046201600E-003)   1.0000000000000000     
     Electronic Dipole per cell (Ry a.u.)   2.2348610446558646E-002
     Ionic Dipole per cell (Ry a.u.)   172.76032877949729     

     Expectation value of exp(iGx):        (0.22834007529232181,3.78297349078760142E-002)   1.0000000000000000     
     Electronic Dipole per cell (Ry a.u.)  0.75237977496045660     
     Ionic Dipole per cell (Ry a.u.)   172.76032877949731     
Electronic Dipole on Cartesian axes
           1  -3.2692504688444108E-003
           2   2.2348610446558646E-002
           3  0.75237977496045660     
Ionic Dipole on Cartesian axes
           1   172.76032877949729     
           2   172.76032877949729     
           3   172.76032877949731     

     total cpu time spent up to now is       64.1 secs

     total energy              =     -63.18274046 Ry
     Harris-Foulkes estimate   =     -63.05658701 Ry
     estimated scf accuracy    <       0.23880115 Ry

     iteration #  2     ecut=    30.00 Ry     beta= 0.50
     Davidson diagonalization with overlap
     ethr =  7.46E-04,  avg # of iterations =  1.1

     Expectation value of exp(iGx):       (0.22805256620703349,-3.91120989328737378E-004)   1.0000000000000000     
     Electronic Dipole per cell (Ry a.u.)  -7.8593863188771637E-003
     Ionic Dipole per cell (Ry a.u.)   172.76032877949729     

     Expectation value of exp(iGx):        (0.22804903118861677,4.44623896890861060E-004)   1.0000000000000000     
     Electronic Dipole per cell (Ry a.u.)   8.9346371947460080E-003
     Ionic Dipole per cell (Ry a.u.)   172.76032877949729     

     Expectation value of exp(iGx):        (0.22466268496335187,3.87529823416467994E-002)   1.0000000000000000     
     Electronic Dipole per cell (Ry a.u.)  0.78277017717829767     
     Ionic Dipole per cell (Ry a.u.)   172.76032877949731     
Electronic Dipole on Cartesian axes
           1  -7.8593863188771637E-003
           2   8.9346371947460080E-003
           3  0.78277017717829767     
Ionic Dipole on Cartesian axes
           1   172.76032877949729     
           2   172.76032877949729     
           3   172.76032877949731     

     total cpu time spent up to now is       81.0 secs

     total energy              =     -63.18042319 Ry
     Harris-Foulkes estimate   =     -63.01339438 Ry
     estimated scf accuracy    <       0.04271515 Ry

     iteration #  3     ecut=    30.00 Ry     beta= 0.50
     Davidson diagonalization with overlap
     ethr =  1.33E-04,  avg # of iterations =  1.7

     Expectation value of exp(iGx):       (0.22064375971219652,-1.31686869385157885E-004)   1.0000000000000000     
     Electronic Dipole per cell (Ry a.u.)  -2.7350399582171557E-003
     Ionic Dipole per cell (Ry a.u.)   172.76032877949729     

     Expectation value of exp(iGx):        (0.22071689029225586,1.29200656258039389E-004)   1.0000000000000000     
     Electronic Dipole per cell (Ry a.u.)   2.6825140446946972E-003
     Ionic Dipole per cell (Ry a.u.)   172.76032877949729     

     Expectation value of exp(iGx):        (0.21682659311099589,4.01389793066419809E-002)   1.0000000000000000     
     Electronic Dipole per cell (Ry a.u.)  0.83883747946198106     
     Ionic Dipole per cell (Ry a.u.)   172.76032877949731     
Electronic Dipole on Cartesian axes
           1  -2.7350399582171557E-003
           2   2.6825140446946972E-003
           3  0.83883747946198106     
Ionic Dipole on Cartesian axes
           1   172.76032877949729     
           2   172.76032877949729     
           3   172.76032877949731     

     total cpu time spent up to now is       97.1 secs

     total energy              =     -63.18335575 Ry
     Harris-Foulkes estimate   =     -63.00983782 Ry
     estimated scf accuracy    <       0.00076427 Ry

     iteration #  4     ecut=    30.00 Ry     beta= 0.50
     Davidson diagonalization with overlap
     ethr =  2.39E-06,  avg # of iterations =  3.4

     Expectation value of exp(iGx):       (0.21892441735859069,-9.70532644114079143E-007)   1.0000000000000000     
     Electronic Dipole per cell (Ry a.u.)  -2.0315562337289389E-005
     Ionic Dipole per cell (Ry a.u.)   172.76032877949729     

     Expectation value of exp(iGx):        (0.21892364758695498,2.00915670842987609E-005)   1.0000000000000000     
     Electronic Dipole per cell (Ry a.u.)   4.2056588213211537E-004
     Ionic Dipole per cell (Ry a.u.)   172.76032877949729     

     Expectation value of exp(iGx):        (0.21462268124749714,4.25139832693140415E-002)   1.0000000000000000     
     Electronic Dipole per cell (Ry a.u.)  0.89615484012092694     
     Ionic Dipole per cell (Ry a.u.)   172.76032877949731     
Electronic Dipole on Cartesian axes
           1  -2.0315562337289389E-005
           2   4.2056588213211537E-004
           3  0.89615484012092694     
Ionic Dipole on Cartesian axes
           1   172.76032877949729     
           2   172.76032877949729     
           3   172.76032877949731     

     total cpu time spent up to now is      119.6 secs

     total energy              =     -63.18381281 Ry
     Harris-Foulkes estimate   =     -63.01016638 Ry
     estimated scf accuracy    <       0.00002683 Ry

     iteration #  5     ecut=    30.00 Ry     beta= 0.50
     Davidson diagonalization with overlap
     ethr =  8.38E-08,  avg # of iterations =  2.9

     Expectation value of exp(iGx):        (0.21859687064920416,4.77561735335244640E-006)   1.0000000000000000     
     Electronic Dipole per cell (Ry a.u.)   1.0011484613809698E-004
     Ionic Dipole per cell (Ry a.u.)   172.76032877949729     

     Expectation value of exp(iGx):        (0.21860045260483965,8.43886977425057230E-006)   1.0000000000000000     
     Electronic Dipole per cell (Ry a.u.)   1.7690745353762699E-004
     Ionic Dipole per cell (Ry a.u.)   172.76032877949729     

     Expectation value of exp(iGx):        (0.21422770859233023,4.27502544807995960E-002)   1.0000000000000000     
     Electronic Dipole per cell (Ry a.u.)  0.90262678728623280     
     Ionic Dipole per cell (Ry a.u.)   172.76032877949731     
Electronic Dipole on Cartesian axes
           1   1.0011484613809698E-004
           2   1.7690745353762699E-004
           3  0.90262678728623280     
Ionic Dipole on Cartesian axes
           1   172.76032877949729     
           2   172.76032877949729     
           3   172.76032877949731     

     total cpu time spent up to now is      141.3 secs

     total energy              =     -63.18377069 Ry
     Harris-Foulkes estimate   =     -63.01010761 Ry
     estimated scf accuracy    <       0.00000088 Ry

     iteration #  6     ecut=    30.00 Ry     beta= 0.50
     Davidson diagonalization with overlap
     ethr =  2.76E-09,  avg # of iterations =  3.1

     Expectation value of exp(iGx):        (0.21855337540961542,1.14231922052548580E-006)   1.0000000000000000     
     Electronic Dipole per cell (Ry a.u.)   2.3952059900978038E-005
     Ionic Dipole per cell (Ry a.u.)   172.76032877949729     

     Expectation value of exp(iGx):        (0.21855613159675211,9.34272015965422654E-007)   1.0000000000000000     
     Electronic Dipole per cell (Ry a.u.)   1.9589495374853600E-005
     Ionic Dipole per cell (Ry a.u.)   172.76032877949729     

     Expectation value of exp(iGx):        (0.21416632925116413,4.28235270685625932E-002)   1.0000000000000000     
     Electronic Dipole per cell (Ry a.u.)  0.90438650435181245     
     Ionic Dipole per cell (Ry a.u.)   172.76032877949731     
Electronic Dipole on Cartesian axes
           1   2.3952059900978038E-005
           2   1.9589495374853600E-005
           3  0.90438650435181245     
Ionic Dipole on Cartesian axes
           1   172.76032877949729     
           2   172.76032877949729     
           3   172.76032877949731     

     total cpu time spent up to now is      162.4 secs

     total energy              =     -63.18376630 Ry
     Harris-Foulkes estimate   =     -63.01010155 Ry
     estimated scf accuracy    <       0.00000028 Ry

     iteration #  7     ecut=    30.00 Ry     beta= 0.50
     Davidson diagonalization with overlap
     ethr =  8.88E-10,  avg # of iterations =  2.0

     Expectation value of exp(iGx):        (0.21856619101390240,1.94522425743714230E-007)   1.0000000000000000     
     Electronic Dipole per cell (Ry a.u.)   4.0784918238278024E-006
     Ionic Dipole per cell (Ry a.u.)   172.76032877949729     

     Expectation value of exp(iGx):        (0.21856732515092778,3.83497700647679701E-007)   1.0000000000000000     
     Electronic Dipole per cell (Ry a.u.)   8.0406365207288177E-006
     Ionic Dipole per cell (Ry a.u.)   172.76032877949729     

     Expectation value of exp(iGx):        (0.21417636245684343,4.28301237388746397E-002)   1.0000000000000000     
     Electronic Dipole per cell (Ry a.u.)  0.90448094793212386     
     Ionic Dipole per cell (Ry a.u.)   172.76032877949731     
Electronic Dipole on Cartesian axes
           1   4.0784918238278024E-006
           2   8.0406365207288177E-006
           3  0.90448094793212386     
Ionic Dipole on Cartesian axes
           1   172.76032877949729     
           2   172.76032877949729     
           3   172.76032877949731     

     total cpu time spent up to now is      180.0 secs

     End of self-consistent calculation

     Number of k-points >= 100: set verbosity='high' to print the bands.

     highest occupied level (ev):     6.4879

!    total energy              =     -63.18376466 Ry
     Harris-Foulkes estimate   =     -63.01009985 Ry
     estimated scf accuracy    <          9.2E-09 Ry

     The total energy is the sum of the following terms:

     one-electron contribution =      19.81967675 Ry
     hartree contribution      =       4.29570899 Ry
     xc contribution           =     -19.39364377 Ry
     ewald contribution        =     -67.73184182 Ry

     convergence has been achieved in   7 iterations

     Writing output data file silicon.save

     init_run     :      4.03s CPU      4.01s WALL (       1 calls)
     electrons    :    179.07s CPU    175.98s WALL (       1 calls)

     Called by init_run:
     wfcinit      :      3.88s CPU      3.85s WALL (       1 calls)
     potinit      :      0.04s CPU      0.04s WALL (       1 calls)

     Called by electrons:
     c_bands      :    129.96s CPU    124.40s WALL (       8 calls)
     sum_band     :     13.52s CPU     14.11s WALL (       8 calls)
     v_of_rho     :      0.24s CPU      0.26s WALL (       8 calls)
     mix_rho      :      0.05s CPU      0.14s WALL (       8 calls)

     Called by c_bands:
     init_us_2    :      1.63s CPU      1.65s WALL (    2125 calls)
     cegterg      :    127.54s CPU    121.94s WALL (    1000 calls)

     Called by sum_band:

     Called by *egterg:
     h_psi        :    107.12s CPU    106.70s WALL (    4216 calls)
     g_psi        :      0.88s CPU      0.90s WALL (    3091 calls)
     cdiaghg      :      2.61s CPU      2.65s WALL (    3966 calls)

     Called by h_psi:
     h_psi:pot    :     87.20s CPU     88.69s WALL (    4216 calls)
     h_psi:calbec :      4.59s CPU      4.63s WALL (    4216 calls)
     vloc_psi     :     77.31s CPU     80.90s WALL (    4216 calls)
     add_vuspsi   :      5.28s CPU      3.13s WALL (    4216 calls)

     General routines
     calbec       :      4.57s CPU      4.62s WALL (    4216 calls)
     fft          :      0.10s CPU      0.11s WALL (      89 calls)
     fftw         :     81.29s CPU     85.25s WALL (  121044 calls)

     Parallel routines
     fft_scatt_xy :      7.42s CPU      7.61s WALL (  121133 calls)
     fft_scatt_yz :      5.40s CPU      5.62s WALL (  121133 calls)

     Electric-field routines
     h_epsi_set   :     16.63s CPU     18.09s WALL (       8 calls)
     h_epsi_apply :     19.28s CPU     17.33s WALL (    4091 calls)
     c_phase_fiel :     18.69s CPU     18.96s WALL (      21 calls)

     PWSCF        :  3m 3.26s CPU     3m 0.58s WALL


   This run was terminated on:  13:49:57  10Apr2018            

=------------------------------------------------------------------------------=
   JOB DONE.
=------------------------------------------------------------------------------=
